! Touchstone file exported from HFSS 2019.2.0
!        File:           C:/Users/jgarrett/Documents/Ansoft/Examples/WR2_8-waveguide.aedt
!        Generated:      5:18:29 PM  Dec 11, 2019
!        Design:         simple-waveguide
!        Project:        WR2_8-waveguide
!        Setup:          RF
!        Solution:       RFsweep
!
! Variables:
!        a = 0.711mm
!        b = 0.3555mm
!        wavelength = 1.175mm
!
!Data is not renormalized
# GHZ S MA
! Modal data exported
! Port[1] = 1:1
! Port[2] = 2:1
200                            0.00028902690796595 180              0.000270212196330757 9.46699617693567E-15 0.000270212196330758 8.54552153730934E-15 0.000384403673249989 179.999999999976 
! Gamma         !               1397.65029907748 0                1397.65701007796 0                
! Port Impedance0                1129.85108311566 4.42669424220578E-14 1129.84565801415 

200.444444444444               0.000298531766697652 -179.998296462021 0.000323641508405271 2.12153386510408 0.000323641508405354 2.1215338651197  0.000395642497317417 179.998109775316 
! Gamma         !               1369.39750372812 0                1369.40435318626 0                
! Port Impedance1.87188732059982E-16 1155.72424558757 3.51121573008979E-14 1155.71846491013 

200.888888888889               0.000309057683907929 -179.996693411423 0.000387521059079451 2.73820731350897 0.000387521059079659 2.73820731350056 0.00040796654170667 179.997640237398 
! Gamma         !               1340.4846714664  0                1340.49166865933 0                
! Port Impedance3.49205827128588E-16 1183.26984511252 2.69455896875599E-14 1183.26366859715 

201.333333333333               0.000320756043159469 -179.995568319512 0.000462931070980243 2.49200259349981 0.000462931070980336 2.49200259349037 0.00042152817499974 179.998097687266 
! Gamma         !               1310.86812920692 0                1310.8752844871  0                
! Port Impedance4.72670156173255E-16 1212.68054874411 1.97406955490188E-14 1212.67392944996 

201.777777777778               0.00033380899142699 -179.99521811311 0.00055209073059956 1.83886963139325 0.000552090730599683 1.83886963138771 0.000436509019480535 179.998988011288 
! Gamma         !               1280.49904975314 0                1280.50637473126 0                
! Port Impedance5.3805289663667E-16 1244.18169247452 1.34732894554657E-14 1244.17457528725 

202.222222222222               0.000348437764711393 -179.99582726117 0.000658488183452708 1.08949205381683 0.000658488183452758 1.08949205380789 0.000453127519695896 179.999847731837 
! Gamma         !               1249.32255530005 0                1249.33006306985 0                
! Port Impedance5.16456704477592E-16 1278.03877456328 8.12189116601516E-15 1278.03109427029 

202.666666666667               0.000364913868927648 -179.997435824306 0.000787251697750344 0.443344474142393 0.000787251697750423 0.443344474142349 0.000471649068178899 -179.999716273018 
! Gamma         !               1217.27660967355 0                1217.28431509119 0                
! Port Impedance3.64394700003412E-16 1314.56716375676 3.66816531892711E-15 1314.55884253806 

203.111111111111               0.000383574303331228 -179.999911653679 0.000945757517854611 0.00959899934163531 0.000945757517854557 0.00959899934818408 0.000492399762461019 -179.999978870828 
! Gamma         !               1184.29063504266 0                1184.2985550774  0                
! Port Impedance1.51033028238404E-17 1354.14484038735 9.74797355117179E-17 1354.1357845001  

203.555555555556               0.000404842597833102 179.997066720446 0.00114447360791596 -0.180057716344904 0.00114447360791587 -0.180057716336545 0.000515785405493054 179.998956903745 
! Gamma         !               1150.28376436221 0                1150.29191854241 0                
! Port Impedance6.36296784735833E-16 1397.22935803522 2.60038603226184E-15 1397.21945336686 

204                            0.000429258357082585 179.994006940504 0.00139804002874957 -0.159531820920313 0.00139804002874963 -0.159531820913225 0.000542318213715706 179.997213132587 
! Gamma         !               1115.16260490359 0                1115.1710158913  0                
! Port Impedance1.75868672578408E-15 1444.380784678   4.43034478089706E-15 1444.3698906816  

204.444444444444               0.000457519492909502 179.991566350101 0.00172660536954924 -0.0111466950980377 0.00172660536954927 -0.0111466950822277 0.000572655075990559 179.995178402736 
! Gamma         !               1078.81833443344 0                1078.82702877636 0                
! Port Impedance3.62998840912154E-15 1496.29328633722 5.39088024350545E-15 1496.28122760437 

204.888888888889               0.000490543798174472 179.990465973707 0.00215751034316261 0.159435307815342 0.00215751034316261 0.159435307830074 0.000607653493464141 179.993517212777 
! Gamma         !               1041.12286909773 0                1041.13187823012 0                
! Port Impedance6.70741126286741E-15 1553.83948588923 5.4726761337325E-15 1553.82604019044 

205.333333333333               0.000529560750640409 179.991337930005 0.00272757935111773 0.253499027034988 0.00272757935111776 0.253499027041022 0.00064845523288692 179.993115712601 
! Gamma         !               1001.92371212649 0                1001.93307372799 0                
! Port Impedance1.16541031502665E-14 1618.134191975   4.65702866745067E-15 1618.11907287387 

205.777777777778               0.000576251970999724 179.994495298108 0.003486616339793 0.208021281159184 0.00348661633979318 0.208021281156996 0.000696614616492761 179.994918981645 
! Gamma         !               961.036881601602 0                961.046641483761 0                
! Port Impedance1.83221280185055E-14 1690.62836205698 2.91425048091752E-15 1690.61119292817 

206.222222222222               0.00063297277142434 179.999635095355 0.00450336571037646 0.0159209167077399 0.00450336571037631 0.0159209167081778 0.000754301055291803 179.99960726181  
! Gamma         !               918.236961350518 0                918.247176145356 0                
! Port Impedance5.13640721521038E-15 1773.25186224232 2.02773545594535E-16 1773.23213617679 

206.666666666667               0.000703114684393565 -179.99446225825 0.00587660747757215 -0.266587883060089 0.00587660747757165 -0.266587883059764 0.000824630012872246 -179.992924376652 
! Gamma         !               873.242699995876 0                873.253441106749 0                
! Port Impedance4.33743205509437E-12 1868.63811673263 3.52891305934823E-15 1868.61513228338 

207.111111111111               0.000791726070651829 -179.990066861541 0.00775711165778351 -0.528906624220228 0.00775711165778217 -0.528906624220324 0.000912227361964223 -179.9842300943  
! Gamma         !               825.695449615925 0                825.706809239904 0                
! Port Impedance6.44092588558875E-13 1980.49267173169 8.33110071215512E-15 1980.46542519373 

207.555555555556               0.000906636095886769 -179.990115080864 0.0103925046735277 -0.638236155177723 0.0103925046735257 -0.638236155171231 0.00102424554835803 -179.977815311042 
! Gamma         !               775.125541090562 0                775.137641815734 0                
! Port Impedance2.71442256519521E-13 2114.22910592896 1.42124198100626E-14 2114.19610055824 

208                            0.00106064025409049 -179.996733846314 0.014218856174999 -0.506382126942406 0.014218856174997 -0.506382126932576 0.00117232866548523 -179.978616818119 
! Gamma         !               720.897149321426 0                720.910160289532 0                
! Port Impedance2.10724571600106E-13 2278.13658847759 2.10008478572695E-14 2278.09547272744 

208.444444444444               0.00127615118089245 179.991870380685 0.0200415460750362 -0.187103055404905 0.0200415460750357 -0.187103055395571 0.00137678927798812 -179.989752843169 
! Gamma         !               662.111970790049 0                662.126136904471 0                
! Port Impedance2.03983583625644E-13 2485.69945520117 2.78269541743555E-14 2485.64627393996 

208.888888888889               0.00159630717858837 179.985223998705 0.0293798436469652 0.0728003922044845 0.0293798436469666 0.0728003922098923 0.00167666018399372 179.995104083718 
! Gamma         !               597.426389056362 0                597.442088950501 0                
! Port Impedance2.23760320701259E-13 2760.70924880984 3.07857881064449E-14 2760.63670145538 

209.333333333333               0.00211585219969884 179.99773180114  0.04518322666467 0.0190112583556509 0.0451832266646706 0.0190112583558769 0.00215812156060187 179.997987892233 
! Gamma         !               524.662544244322 0                524.68042143914  0                
! Port Impedance2.66274592884592E-13 3150.27205307288 7.01391008527245E-15 3150.1647153013  

209.777777777778               0.00308765952460506 -179.981582303693 0.0741027591398887 -0.117770446922441 0.0741027591398872 -0.117770446921216 0.00305446421359899 -179.975393154856 
! Gamma         !               439.829224630519 0                439.850549786763 0                
! Port Impedance3.07105805780155E-13 3765.86831967447 1.24321433897403E-14 3765.68574009165 

210.222222222222               0.00545949844825011 179.99954933688  0.137620227485758 -0.0231599657905478 0.137620227485756 -0.0231599657913727 0.00525344534145808 179.99427368157  
! Gamma         !               333.849030041651 0                333.877124356281 0                
! Port Impedance2.50092756935295E-13 4971.85250342665 6.07917067170255E-13 4971.43414356186 

210.666666666667               0.018777111013769 179.999999999994 0.350041770760546 -4.22320535416473E-13 0.350041770760546 -4.28021925633743E-13 0.0179098848477948 -179.999999999968 
! Gamma         !               171.134652816464 0                171.189452663741 0                
! Port Impedance1.06149957525911E-12 9719.58221833132 -7.26525673416767E-14 9716.47086063449 

211.111111111111               0.0255398820187958 17.1586612563805 0.999673804011321 -75.5968637989646 0.999673804011321 -75.5968637989646 0.0255398820187959 11.64761114569   
! Gamma         !               0                230.335775675529 0                230.295050418701 
! Port Impedance7236.68095519543 0                7237.96068608824 0                

211.555555555556               0.009754474470014 -24.3202539018198 1.00004686760373 -122.717317473039 1.00004686760374 -122.717317473039 0.00976104623022508 -41.2578851728107 
! Gamma         !               0                368.19796576375  0                368.172490395228 
! Port Impedance4536.62396081496 -2.38182246833605E-13 4536.93786847875 1.98950428099246E-13 

212                            0.00425981075251954 -45.3120402811986 0.999924573916093 -156.301282660498 0.999924573916088 -156.301282660498 0.00426070907019354 -87.3469596307915 
! Gamma         !               0                467.181386524147 0                467.161308977961 
! Port Impedance3582.94434403142 1.20046211480725E-13 3583.09833095027 -1.45501221367435E-13 

212.444444444444               0.00195455620121309 -41.4004269678672 0.999995585206732 176.103359787008 0.99999558520673 176.103359787008 0.00195491892100394 -146.399201341819 
! Gamma         !               0                548.744646736812 0                548.727553539694 
! Port Impedance3056.78444269906 1.04674942301183E-13 3056.87966339415 -1.39993582822027E-12 

212.888888888889               0.00154502332934731 -18.3513323916463 0.9999977395542  152.09229441238  0.999997739554198 152.09229441238  0.00154483860333639 142.529331542474 
! Gamma         !               0                619.803565830228 0                619.788432376057 
! Port Impedance2711.99358071467 -1.0153054159175E-13 2712.05979981191 5.81977438516922E-14 

213.333333333333               0.00175569359159423 -15.7005967914134 0.999999035722415 130.539055417223 0.999999035722415 130.539055417223 0.00175566351912335 96.7784470118717 
! Gamma         !               0                683.641548324011 0                683.627828051322 
! Port Impedance2463.88255459465 2.6122309213387E-15 2463.93200422078 -2.43153200950132E-15 

213.777777777778               0.00186729559374245 -26.3781294232293 1.00000083626973 110.80359203015  1.00000083626973 110.80359203015  0.0018671809498575 67.9821263224522 
! Gamma         !               0                742.124387457884 0                742.111748425418 
! Port Impedance2274.44577447398 6.46374544212265E-15 2274.48451095003 -5.54964651148623E-15 

214.222222222222               0.00181791817643471 -41.4707272243147 0.999996412180288 92.4835501575773 0.999996412180291 92.4835501575773 0.00181797332664024 46.4403032928709 
! Gamma         !               0                796.432658678751 0                796.420881507626 
! Port Impedance2123.75880299752 -6.97610099404127E-15 2123.79020834039 3.33946500350603E-15 

214.666666666667               0.00165648181651587 -58.334934538751 0.999993439555473 75.3057964031989 0.999993439555475 75.3057964031989 0.00165654861475012 28.9521630913679 
! Gamma         !               0                847.36939208726  0                847.358322870325 
! Port Impedance2000.23753320228 -8.87215505599832E-14 2000.26366271873 8.1632638402705E-15 

215.111111111111               0.00143173717674539 -76.3286377938899 0.99999537615456 59.0744580328539 0.999995376154562 59.0744580328539 0.00143172893419942 14.4802454658759 
! Gamma         !               0                895.510093169286 0                895.499619016847 
! Port Impedance1896.62770768471 -4.19663360974612E-13 1896.64989146568 5.16173588666811E-15 

215.555555555556               0.00118121676500273 -95.6144189896408 0.999998917616426 43.6436967013506 0.999998917616427 43.6436967013506 0.00118120944279257 2.90190639053478 
! Gamma         !               0                941.283857704724 0                941.27389290626  
! Port Impedance1808.12454602383 -2.94967296406696E-15 1808.14368773896 4.98591369951738E-16 

216                            0.000933752174735257 -116.987032724611 1.00000060565827 28.9016675939433 1.00000060565827 28.9016675939433 0.00093379737066998 -5.20908825860165 
! Gamma         !               0                985.02071453781  0                985.011192200349 
! Port Impedance1731.40281762322 4.3998259810651E-15 1731.41955550603 -1.31644545578717E-15 

216.444444444444               0.000714342716102711 -142.061428721785 1.00000028093391 14.7603026097777 1.00000028093391 14.7603026097777 0.000714398878820081 -8.41701012622778 
! Gamma         !               0                1026.98093889191 0                1026.97180562014 
! Port Impedance1664.07843468645 2.95966276947145E-15 1664.09323400275 -8.97007908145214E-16 

216.888888888889               0.000550413060924877 -173.18689317691 0.999999848522719 1.14863840219662 0.99999984852272 1.14863840219662 0.000550413060924854 -4.51583001869732 
! Gamma         !               0                1067.37407833986 0                1067.3652907057  
! Port Impedance1604.39161927526 0                1604.4048282551  0                

217.333333333333               0.000472240317028203 149.410999416478 1.00000068487942 -11.991566919132 1.00000068487942 -11.991566919132 0.000472179634915483 6.60816932156541 
! Gamma         !               0                1106.37178690615 0                1106.36330902345 
! Port Impedance1551.01136788274 -4.01588622825778E-15 1551.02325303145 5.32621556301151E-16 

217.777777777778               0.000486602226160552 112.505191946246 1.00000231583293 -24.7087728918378 1.00000231583293 -24.7087728918379 0.000486540493700876 18.0823873182306 
! Gamma         !               0                1144.11676505441 0                1144.10856687171 
! Port Impedance1502.90989851707 -1.0353507709448E-14 1502.9206677246  6.05039541449594E-16 

218.222222222222               0.00055799820362084 82.6981505685838 1.00000288664468 -37.0437239577491 1.00000288664468 -37.0437239577492 0.000557967992713452 23.2171889475763 
! Gamma         !               0                1180.72915896039 0                1180.72121498287 
! Port Impedance1459.27928591638 -2.58932845345686E-14 1459.28910405267 3.85699130763585E-16 

218.666666666667               0.000646968975880619 59.617571979669  1.00000059507549 -49.0309968481944 1.00000059507549 -49.0309968481945 0.000646965148980046 22.3205839439796 
! Gamma         !               0                1216.3112492395  0                1216.30353765738 
! Port Impedance1419.4744952856  -4.08895572725339E-13 1419.48349500791 6.09523687162644E-17 

219.111111111111               0.000732467314178848 40.8927531022448 0.999994991557132 -60.7002168659026 0.999994991557127 -60.7002168659026 0.000732481719293007 17.7076371043468 
! Gamma         !               0                1250.95095696005 0                1250.94345891834 
! Port Impedance1382.97347284072 3.3679236494831E-14 1382.98176225835 -2.38422143421279E-16 

219.555555555556               0.000806012701394809 24.8669094202556 0.999987445144197 -72.0770304771962 0.999987445144192 -72.0770304771961 0.000806043706141999 10.9831075341927 
! Gamma         !               0                1284.72451206392 0                1284.71721113604 
! Port Impedance1349.34856904971 1.62208271880106E-14 1349.35623727154 -4.41645502015637E-16 

220                            0.000864940460680908 10.6022056092806 0.999980646151959 -83.183872160247 0.999980646151955 -83.1838721602469 0.000864987383745173 3.03745419699681 
! Gamma         !               0                1317.69851656665 0                1317.69139833773 
! Port Impedance1318.24567821371 9.98412159972142E-15 1318.25279943685 -5.24053296284947E-16 

220.444444444444               0.000909155687713862 -2.42981796747547 0.99997746198261 -94.0405485848769 0.999977461982606 -94.0405485848768 0.000909212518496489 -5.64258968822822 
! Gamma         !               0                1349.93156223258 0                1349.92461397034 
! Port Impedance1289.36874729416 6.49593273419613E-15 1289.37538386635 -4.9239441618653E-16 

220.888888888889               0.000939713011673517 -14.539711443128 0.999979668764946 -104.664666052426 0.999979668764943 -104.664666052426 0.000939767087965544 -14.7823373169793 
! Gamma         !               0                1381.47551492862 0                1381.46872532048 
! Port Impedance1262.46809382998 4.0829434684467E-15 1262.47429857677 -3.73448393904772E-16 

221.333333333333               0.000958166164634291 -25.9193339923778 0.999987062771792 -115.07193518731 0.999987062771788 -115.07193518731 0.000958202150238186 -24.2205003128351 
! Gamma         !               0                1412.37654592123 0                1412.36990486192 
! Port Impedance1237.3314734853  2.15642007151153E-15 1237.33729150199 -2.05825435480875E-16 

221.777777777778               0.000966247672709705 -36.6933288545524 0.99999728617758 -125.276392761008 0.999997286177577 -125.276392761008 0.000966254528683374 -33.8588463913372 
! Gamma         !               0                1442.67596849581 0                1442.66946691424 
! Port Impedance1213.77716382328 3.93611563052918E-16 1213.78263387128 -3.37784972773539E-17 

222.222222222222               0.000965698734314425 -46.9469811576324 1.00000646650299 -135.29058113242 1.00000646650298 -135.29058113242 0.000965676421905333 -43.6356679388341 
! Gamma         !               0                1472.41092299934 0                1472.40455271609 
! Port Impedance1191.64854771572 -1.54771721168689E-15 1191.65370332242 9.82648693552011E-17 

222.666666666667               0.000958172659177283 -56.7420196141963 1.0000105379405  -145.125720856797 1.0000105379405  -145.125720856797 0.000958135405971777 -53.511116186748 
! Gamma         !               0                1501.61494256885 0                1501.60869617799 
! Port Impedance1170.80982671986 -4.53764071651663E-15 1170.8146970538  1.51765948292792E-16 

223.111111111111               0.000945178345814224 -66.1259099435251 1.00000693173241 -154.791902839265 1.0000069317324  -154.791902839265 0.000945152058643641 -63.4585686120158 
! Gamma         !               0                1530.31842399215 0                1530.31229476246 
! Port Impedance1151.14259605495 -1.53403270388209E-14 1151.1472066285  1.02268545283708E-16 

223.555555555556               0.000928048832144716 -75.1374173042817 0.999996215177938 -164.298314885369 0.999996215177936 -164.298314885369 0.000928061407006502 -73.4591255025262 
! Gamma         !               0                1558.54902244343 0                1558.5430042353  
! Port Impedance1132.54308375479 1.48755489554762E-14 1132.54745699313 -4.81420489218242E-17 

224                            0.000907927660178301 -83.8099209908418 0.999983229891683 -173.653505528438 0.999983229891682 -173.653505528438 0.000907992324200609 -83.4977836947482 
! Gamma         !               0                1586.33198460934 0                1586.32607180425 
! Port Impedance1114.91990699081 4.37524903554063E-15 1114.92406269638 -2.5073915256318E-16 

224.444444444444               0.000885768629951763 -92.1733352775607 0.99997732162263 177.134322798349 0.999977321622631 177.134322798349 0.000885861864867938 -93.5605850115658 
! Gamma         !               0                1613.69043156219 0                1613.68461900295 
! Port Impedance1098.19223486233 1.67259837457166E-15 1098.19619059653 -3.76649195015659E-16 

224.888888888889               0.000862345392220167 -100.255162328836 0.999991349237344 168.057007692153 0.999991349237347 168.057007692153 0.000862382254538064 -103.632432303505 
! Gamma         !               0                1640.64560034214 0                1640.63988328132 
! Port Impedance1082.28827342055 2.66538349744619E-16 1082.29204481971 -1.59591098418275E-16 

225.333333333333               0.000838235367277256 -108.073964618708 0.999998737256427 159.11268206098  0.999998737256444 159.11268206098  0.000838134148859315 -113.679060856201 
! Gamma         !               0                1667.21705138058 0                1667.21142543634 
! Port Impedance1067.14400820943 0                1067.14760924802 0                

225.777777777778               0.000813930395081086 -115.666073491626 0.999998341114997 150.29018651673  0.99999834111502 150.290186516731 0.000813824270386922 -123.719122933085 
! Gamma         !               0                1693.42284748734 0                1693.41730860513 
! Port Impedance1052.70215415277 0                1052.70559736385 0                

226.222222222222               0.000789776668069831 -123.057072810125 0.999998455025594 141.583388382024 0.999998455025615 141.583388382024 0.000789711963461943 -133.740820314506 
! Gamma         !               0                1719.27970902224 0                1719.27425344152 
! Port Impedance1038.9112735666  0                1038.91457022756 0                

226.666666666667               0.000765964455633397 -130.268505430454 0.999998785954631 132.988211940752 0.999998785954646 132.988211940753 0.000765937187251076 -143.725725535924 
! Gamma         !               0                1744.80314901278 0                1744.79777323798 
! Port Impedance1025.72503139176 0                1025.72819168165 0                

227.111111111111               0.000742571000876093 -137.320004727014 0.999999158281693 124.500456134299 0.9999991582817  124.500456134299 0.00074256409455238 -153.658933029544 
! Gamma         !               0                1770.00759129438 0                1770.00229206943 
! Port Impedance1013.10156311719 0                1013.1045962506  0                

227.555555555556               0.000719590704513387 -144.228264451158 0.999999479528487 116.115919813901 0.999999479528489 116.115919813901 0.000719590449347716 -163.529478321785 
! Gamma         !               0                1794.90647420984 0                1794.90124849577 
! Port Impedance1001.0029357862  0                1001.00585012766 0                

228                            0.000696960264440071 -151.006324830846 0.999999712729493 107.830491846728 0.99999971272949 107.830491846728 0.000696960414417213 -173.330713990485 
! Gamma         !               0                1819.51234196599 0                1819.50718692118 
! Port Impedance989.394686312832 0                989.39748947513  0                

228.444444444444               0.0006745790928453 -157.663047580803 0.999999855057107 99.6402120344781 0.9999998550571  99.6402120344781 0.000674579073891202 176.939364787009 
! Gamma         !               0                1843.83692539725 0                1843.83183835989 
! Port Impedance978.245424339369 0                978.248123268261 0                

228.888888888889               0.000652325870744906 -164.202683334152 0.999999922026678 91.5413085684876 0.999999922026669 91.5413085684876 0.000652327354193614 167.277839868862 
! Gamma         !               0                1867.89121359785 0                1867.88619207039 
! Port Impedance967.526489239637 0                967.5290902872   0                

229.333333333333               0.000630072219661412 -170.624460548735 0.999999936460214 83.5302172568301 0.999999936460206 83.5302172568301 0.00063007638461477 157.676613870855 
! Gamma         !               0                1891.68551765329 0                1891.68055928849 
! Port Impedance957.211652757299 0                957.214161745646 0                

229.777777777778               0.000607694387544092 -176.922143331077 0.999999921342118 75.6035871345726 0.99999992134211 75.6035871345726 0.000607700727310278 148.122141564036 
! Gamma         !               0                1915.22952751054 0                1915.22463009955 
! Port Impedance947.276860274933 0                947.279282551778 0                

230.222222222222               0.00058508369008072 176.916482580284 0.999999895723927 67.7582763898959 0.999999895723922 67.7582763898958 0.00058509026288347 138.595100931954 
! Gamma         !               0                1938.53236286701 0                1938.52752432721 
! Port Impedance937.700004922124 0                937.702345409072 0                

230.666666666667               0.00056215629232996 170.910229275344 0.999999872903036 59.9913418590594 0.999999872903032 59.9913418590594 0.000562160821842504 129.069950087885 
! Gamma         !               0                1961.60261883061 0                1961.59783719663 
! Port Impedance928.460729708798 0                928.462992945066 0                

231.111111111111               0.000538862799828246 165.085259253532 0.999999860194272 52.3000247011935 0.99999986019427 52.3000247011935 0.00053886390154347 119.514318260498 
! Gamma         !               0                1984.44840699096 0                1984.44368040524 
! Port Impedance919.540253667343 0                919.542443845818 0                

231.555555555556               0.000515198075070524 159.475988062089 0.999999859719789 44.6817342764545 0.999999859719789 44.6817342764545 0.000515196010250367 109.888192601861 
! Gamma         !               0                2007.07739245418 0                2007.07271915893 
! Port Impedance910.921218635584 0                910.923339636869 0                

232                            0.000491211711668096 154.126127269072 0.999999869752334 37.1340317337593 0.999999869752335 37.1340317337593 0.00049120834316815 100.142896302923 
! Gamma         !               0                2029.49682731406 0                2029.49220564386 
! Port Impedance902.587553847349 0                902.589609268899 0                

232.444444444444               0.000467019670327138 149.089794984988 0.999999886253017 29.6546143672511 0.999999886253018 29.6546143672512 0.000467017616200634 90.2199257119002 
! Gamma         !               0                2051.71358097096 0                2051.70900934611 
! Port Impedance894.52435593562  0                894.526349117775 0                

232.888888888889               0.000442817653538621 144.432485283812 0.999999904342727 22.2413014279943 0.999999904342728 22.2413014279943 0.000442818924354619 80.0498597045055 
! Gamma         !               0                2073.7341676525  0                2073.72964457297 
! Port Impedance886.717782318287 0                886.719716367441 0                

233.333333333333               0.000418896736556587 140.231419481241 0.999999919533403 14.8920217724941 0.999999919533404 14.8920217724941 0.000418901342031566 69.5518326592488 
! Gamma         !               0                2095.56477144554 0                2095.56029548541 
! Port Impedance879.154956238213 0                879.156834047481 0                

233.777777777778               0.000395661304029362 136.57431870428  0.999999928619796 7.60480348979167 0.999999928619796 7.60480348979168 0.000395666388646377 58.6345566995581 
! Gamma         !               0                2117.21126910936 0                2117.20683891182 
! Port Impedance871.823881981837 0                871.825706249529 0                

234.222222222222               0.000373647957582114 133.554871206402 0.999999930193599 0.377765467871797 0.999999930193599 0.377765467871797 0.000373647957581989 47.2006597293615 
! Gamma         !               0                2138.67925090445 0                2138.67486517715 
! Port Impedance864.713369012487 0                864.715142258665 0                
